<VTKFile type="PolyData" version="1.0" byte_order="LittleEndian" header_type="UInt64">
  <PolyData>
    <Piece NumberOfPoints="3516" NumberOfVerts="0" NumberOfLines="0" NumberOfStrips="0" NumberOfPolys="1807">
      <PointData>
      </PointData>
      <CellData>
<DataArray type="Float64" Name="AsH3" format="ascii" RangeMin="0.0" RangeMax="255">
255 255 255 255 255 255 255 255 255 255 255 255 255 255 255 255 255 255 255 255 255 255 255 255 255 255 255 255 255 255 255 255 255 255 255 255 255 255 255 255 255 255 255 255 255 255 255 255 255 255 255 255 255 255 255 255 255 255 255 255 255 255 255 255 255 255 255 255 255 255 255 255 255 255 255 255 255 255 255 255 255 255 255 255 255 255 255 255 255 255 255 255 255 255 255 255 255 255 255 255 255 255 255 255 255 255 255 255 255 255 255 255 255 255 255 255 255 255 255 255 255 255 255 255 255 255 255 255 255 255 255 255 255 255 255 255 255 255 255 255 255 255 255 255 255 255 255 255 255 255 255 255 255 255 255 255 255 255 255 255 255 255 255 255 255 255 255 255 255 255 255 255 255 255 255 255 255 255 255 255 255 255 255 255 255 255 255 255 255 255 255 255 255 255 255 255 255 255 255 255 255 255 255 255 255 255 255 255 255 255 255 255 255 255 255 255 255 255 255 255 255 255 255 255 255 255 255 255 255 255 255 255 255 255 255 255 255 255 255 255 255 255 255 255 255 255 255 255 255 255 255 255 255 255 255 255 255 255 255 255 255 255 255 255 255 255 255 255 255 255 255 255 255 255 255 255 255 255 255 255 255 255 255 255 255 255 255 255 255 255 255 255 255 255 255 255 255 255 255 255 255 255 255 255 255 255 255 255 255 255 255 255 255 255 255 255 255 255 255 255 255 255 255 255 255 255 255 255 255 255 255 255 255 255 255 255 255 255 255 255 255 255 255 255 255 255 255 255 255 255 255 255 255 255 255 255 255 255 255 255 255 255 255 255 255 255 255 255 255 255 255 255 255 255 255 255 255 255 255 255 255 255 255 255 255 255 255 255 255 255 255 255 255 255 255 255 255 255 255 255 255 255 255 255 255 255 255 255 255 255 255 255 255 255 255 255 255 255 255 255 255 255 255 255 255 255 255 255 255 255 255 255 255 255 255 255 255 255 255 255 255 255 255 255 255 255 255 255 255 255 255 255 255 255 255 255 255 255 255 255 255 255 255 255 255 255 255 255 255 255 255 255 255 255 255 255 255 255 255 255 255 255 255 255 255 255 255 255 255 255 255 255 255 255 255 255 255 255 255 255 255 255 255 255 255 255 255 255 255 255 255 255 255 255 255 255 255 255 255 255 255 255 255 255 255 255 255 255 255 255 255 255 255 255 255 255 255 255 255 255 255 255 255 255 255 255 255 255 255 255 255 255 255 255 255 255 255 255 255 255 255 255 255 255 255 255 255 255 255 255 255 255 255 255 255 255 255 255 255 255 255 255 255 255 255 255 255 255 255 255 255 255 255 255 255 255 255 255 255 255 255 255 255 255 255 255 255 255 255 255 255 255 255 255 255 255 255 255 255 255 255 255 255 255 255 255 255 255 255 255 255 255 255 255 255 255 255 255 255 255 255 255 255 255 255 255 255 255 255 255 255 255 255 255 255 255 255 255 255 255 255 255 255 255 255 255 255 255 255 255 255 255 255 255 255 255 255 255 255 255 255 255 255 255 255 255 255 255 255 255 255 255 255 255 255 255 255 255 255 255 255 255 255 255 255 255 255 255 255 255 255 255 255 255 255 255 255 255 255 255 255 255 255 255 255 255 255 255 255 255 255 255 255 255 255 255 255 255 255 255 255 255 255 255 255 255 255 255 255 255 255 255 255 255 255 255 255 255 255 255 255 255 255 255 255 255 255 255 255 255 255 255 255 255 255 255 255 255 255 255 255 255 255 255 255 255 255 255 255 255 255 255 255 255 255 255 255 255 255 255 255 255 255 255 255 255 255 255 255 255 255 255 255 255 255 255 255 255 255 255 255 255 255 255 255 255 255 255 255 255 255 255 255 255 255 255 255 255 255 255 255 255 255 255 255 255 255 255 255 255 255 255 255 255 255 255 255 255 255 255 255 255 255 255 255 255 255 255 255 255 255 255 255 255 255 255 255 255 255 255 255 255 255 255 255 255 255 255 255 255 255 255 255 255 255 255 255 255 255 255 255 255 255 255 255 255 255 255 255 255 255 255 255 255 255 255 255 255 255 255 255 255 255 255 255 255 255 255 255 255 255 255 255 255 255 255 255 255 255 255 255 255 255 255 255 255 255 255 255 255 255 255 255 255 255 255 255 255 255 255 255 255 255 255 255 255 255 255 255 255 255 255 255 255 255 255 255 255 255 255 255 255 255 255 255 255 255 255 255 255 255 255 255 255 255 255 255 255 255 255 255 255 255 255 255 255 255 255 255 255 255 255 255 255 255 255 255 255 255 255 255 255 255 255 255 255 255 255 255 255 255 255 255 255 255 255 255 255 255 255 255 255 255 255 255 255 255 255 255 255 255 255 255 255 255 255 255 255 255 255 255 255 255 255 255 255 255 255 255 255 255 255 255 255 255 255 255 255 255 255 255 255 255 255 255 255 255 255 255 255 255 255 255 255 255 255 255 255 255 255 255 255 255 255 255 255 255 255 255 255 255 255 255 255 255 255 255 255 255 255 255 255 255 255 255 255 255 255 255 255 255 255 255 255 255 255 255 255 255 255 255 255 255 255 255 255 255 255 255 255 255 255 255 255 255 255 255 255 255 255 255 255 255 255 255 255 255 255 255 255 255 255 255 255 255 255 255 255 255 255 255 255 255 255 255 255 255 255 255 255 255 255 255 255 255 255 255 255 255 255 255 255 255 255 255 255 255 255 255 255 255 255 255 255 255 255 255 255 255 255 255 255 255 255 255 255 255 255 255 255 255 255 255 255 255 255 255 255 255 255 255 255 255 255 255 255 255 255 255 255 255 255 255 255 255 255 255 255 255 255 255 255 255 255 255 255 255 255 255 255 255 255 255 255 255 255 255 255 255 255 255 255 255 255 255 255 255 255 255 255 255 255 255 255 255 255 255 255 255 255 255 255 255 255 255 255 255 255 255 255 255 255 255 255 255 255 255 255 255 255 255 255 255 255 255 255 255 255 255 255 255 255 255 255 255 255 255 255 255 255 255 255 255 255 255 255 255 255 255 255 255 255 255 255 255 255 255 255 255 255 255 255 255 255 255 255 255 255 255 255 255 255 255 255 255 255 255 255 255 255 255 255 255 255 255 255 255 255 255 255 255 255 255 255 255 255 255 255 255 255 255 255 255 255 255 255 255 255 255 255 255 255 255 255 255 255 255 255 255 255 255 255 255 255 255 255 255 255 255 255 255 255 255 255 255 255 255 255 255 255 255 255 255 255 255 255 255 255 255 255 255 255 255 255 255 255 255 255 255 255 255 255 255 255 255 255 255 255 255 255 255 255 255 255 255 255 255 255 255 255 255 255 255 255 255 255 255 255 255 255 255 255 255 255 255 255 255 255 255 255 255 255 255 255 255 255 255 255 255 255 255 255 255 255 255 255 255 255 255 255 255 255 255 255 255 255 255 255 255 255 255 255 255 255 255 255 255 255 255 255 255 255 255 255 255 255 255 255 255 255 255 255 255 255 255 255 255 255 255 255 255 255 255 255 255 255 255 255 255 255 255 255 255 255 255 255 255 255 255 255 255 255 255 255 255 255 255 255 255 255 255 255 255 255 255 255 255 255 255 255 255 255 255 255 255 255 255 255 255 255 255 255 255 255 255 255 255 255 255 255 255 255 255 255 255 255 255 255 255 255 255 255 255 255 255 255 255 255 255 255 255 255 255 255 255 255 255 255 255 255 255 255 255 255 255 255 255 255 255 255 255 255 255 255 255 255 255 255 255 255 255 255 255 255 255 255 255 255 255 255 255 255 255 255 255 255 255 255 255 255 255 255 255 255 255 255 255 255 255 255 255 255 255 255 255 255 255 255 255 255 255 255 255 255 255 255 255 255 255 255 255 255 255 255 255 255 255 255 255 255 255 255 255 255 255 255 255 255 255 255 255 255 255 255 255 255 255 255 255 255 255 255 255 255 255 255 255 255 255 255 255 255 255 255 255 255 255 255 255 255 255 255 255 255 255 255 255 255 255 255 255 255 255 255 255 255 255 255 255 255 255 255 255 255 255 255 255 255 255 255 255 255 255 255 255 255 000
  	</DataArray>
      </CellData>
      <Points>
        <DataArray type="Float32" Name="Points" NumberOfComponents="3" format="ascii" RangeMin="1043.3757712348893" RangeMax="2549.384807455581">
          2460 248 -50 2318 290 -50
          2244 259 -50 2206 318 -50
          2179 378 -50 2143 599 -50
          1993 786 -50 1859 805 -50
          1771 887 -50 1689 964 -50
          1738 1031 -50 2418 278 -50
          2325 242 -50 2313 223 -50
          2381 228 -50 2126 493 -50
          2163 516 -50 2070 690 -50
          2059 670 -50 2047 688 -50
          1894 802 -50 1921 824 -50
          1692 1046 -50 1667 1108 -50
          1671 1043 -50 2337 167 -50
          2211 215 -50 2026 449 -50
          1819 710 -50 1646 954 -50
          1621 1075 -50 2433 281 -100
          2433 281 -100 2433 281 -100
          2433 281 -100 2433 281 -100
          2433 281 -100 2433 281 -100
          2433 281 -100 2433 281 -100
          2433 281 -100 2433 281 -100
          2433 281 -100 2433 281 -100
          2433 281 -100 2369 329 -100
          2329 312 -100 2244 500 -100
          1954 855 -100 2263 283 -100
          2309 215 -100 2370 240 -100
          2399 256 -100 2293 357 -100
          2338 379 -100 2207 610 -100
          2061 792 -100 1863 904 -100
          1895 945 -100 1754 1108 -100
          1720 1065 -100 1694 1025 -100
          1737 929 -100 1778 991 -100
          1806 1027 -100 2273 230 -100
          2358 276 -100 2285 247 -100
          2331 459 -100 2062 694 -100
          2206 525 -100 2050 618 -100
          2054 642 -100 2115 689 -100
          2006 886 -100 1970 814 -100
          1918 927 -100 1705 959 -100
          1751 1028 -100 2330 514 -100
          1986 943 -100 2433 209 -50
          2338 187 -50 2305 272 -50
          2193 235 -50 2131 349 -50
          2075 468 -50 1999 570 -50
          1941 661 -50 1861 741 -50
          1744 834 -50 1642 906 -50
          1713 1018 -50 2379 254 -100
          2287 215 -100 2355 312 -100
          2266 272 -100 2312 398 -100
          2269 482 -100 2179 606 -100
          2104 574 -100 2049 760 -100
          1995 697 -100 1946 887 -100
          1860 948 -100 1786 1016 -100
          1731 1056 -100 1727 936 -100
          1671 968 -100 2088 217 -150
          2067 207 -150 2039 199 -150
          2014 190 -150 2047 107 -150
          2073 114 -150 2096 121 -150
          2120 129 -150 2144 142 -150
          2169 150 -150 2062 165 -150
          2227 179 -150 2282 201 -150
          2333 218 -150 2443 260 -150
          2484 278 -150 2507 303 -150
          2486 367 -150 2457 361 -150
          2435 305 -150 2423 350 -150
          2374 331 -150 2337 317 -150
          2251 289 -150 2196 269 -150
          2143 249 -150 2177 211 -150
          2345 276 -150 2375 266 -150
          2267 243 -150 2244 243 -150
          2343 305 -150 2370 246 -150
          2246 267 -150 2266 205 -150
          2088 217 -200 2067 207 -200
          2039 199 -200 2014 190 -200
          2047 107 -200 2073 114 -200
          2096 121 -200 2120 129 -200
          2144 142 -200 2169 150 -200
          2062 165 -200 2227 179 -200
          2282 201 -200 2333 218 -200
          2443 260 -200 2484 278 -200
          2507 303 -200 2457 361 -200
          2435 305 -200 2374 331 -200
          2337 317 -200 2251 289 -200
          2196 269 -200 2143 249 -200
          2177 211 -200 2345 276 -200
          2375 266 -200 2267 243 -200
          2244 243 -200 2343 305 -200
          2370 246 -200 2246 267 -200
          2266 205 -200 2088 217 -250
          2039 199 -250 2014 190 -250
          2047 107 -250 2073 114 -250
          2096 121 -250 2120 129 -250
          2144 142 -250 2169 150 -250
          2062 165 -250 2227 179 -250
          2282 201 -250 2333 218 -250
          2443 260 -250 2484 278 -250
          2507 303 -250 2486 367 -250
          2457 361 -250 2435 305 -250
          2374 331 -250 2337 317 -250
          2251 289 -250 2196 269 -250
          2143 249 -250 2177 211 -250
          2345 276 -250 2375 266 -250
          2267 243 -250 2244 243 -250
          2343 305 -250 2370 246 -250
          2246 267 -250 2266 205 -250
          2088 217 -300 2067 207 -300
          2039 199 -300 2014 190 -300
          2047 107 -300 2073 114 -300
          2096 121 -300 2169 150 -300
          2062 165 -300 2227 179 -300
          2282 201 -300 2333 218 -300
          2443 260 -300 2484 278 -300
          2507 303 -300 2486 367 -300
          2457 361 -300 2435 305 -300
          2374 331 -300 2337 317 -300
          2251 289 -300 2196 269 -300
          2143 249 -300 2177 211 -300
          2345 276 -300 2375 266 -300
          2267 243 -300 2244 243 -300
          2343 305 -300 2370 246 -300
          2246 267 -300 2266 205 -300
          2088 217 -350 2067 207 -350
          2039 199 -350 2014 190 -350
          2047 107 -350 2073 114 -350
          2096 121 -350 2120 129 -350
          2144 142 -350 2169 150 -350
          2062 165 -350 2227 179 -350
          2282 201 -350 2333 218 -350
          2443 260 -350 2484 278 -350
          2507 303 -350 2486 367 -350
          2486 367 -350 2457 361 -350
          2435 305 -350 2423 350 -350
          2337 317 -350 2251 289 -350
          2196 269 -350 2143 249 -350
          2177 211 -350 2345 276 -350
          2375 266 -350 2267 243 -350
          2244 243 -350 2343 305 -350
          2370 246 -350 2246 267 -350
          2266 205 -350 2100 703 -150
          1874 584 -150 1855 568 -150
          1833 554 -150 1814 538 -150
          1865 471 -150 1844 485 -150
          1905 502 -150 1926 518 -150
          1946 533 -150 1968 551 -150
          1872 500 -150 2132 705 -150
          2190 824 -150 2242 760 -150
          1969 653 -150 2064 622 -150
          2036 656 -150 1993 569 -150
          2083 638 -150 2169 706 -150
          2237 768 -150 2194 744 -150
          2119 773 -150 2094 752 -150
          2035 710 -150 1948 641 -150
          1983 582 -150 2100 703 -200
          1874 584 -200 1855 568 -200
          1833 554 -200 1814 538 -200
          1865 471 -200 1844 485 -200
          1905 502 -200 1926 518 -200
          1946 533 -200 1968 551 -200
          1872 500 -200 2132 705 -200
          2190 824 -200 2242 760 -200
          1969 653 -200 2064 622 -200
          2036 656 -200 1993 569 -200
          2083 638 -200 2083 638 -200
          2169 706 -200 2237 768 -200
          2237 768 -200 2237 768 -200
          2237 768 -200 2194 744 -200
          2119 773 -200 2094 752 -200
          2035 710 -200 1948 641 -200
          1983 582 -200 2100 703 -250
          1874 584 -250 1855 568 -250
          1833 554 -250 1814 538 -250
          1865 471 -250 1844 485 -250
          1905 502 -250 1926 518 -250
          1946 533 -250 1968 551 -250
          1872 500 -250 2132 705 -250
          2190 824 -250 2242 760 -250
          1969 653 -250 2064 622 -250
          2036 656 -250 1993 569 -250
          2083 638 -250 2169 706 -250
          2237 768 -250 2237 768 -250
          2237 768 -250 2194 744 -250
          2119 773 -250 2094 752 -250
          2035 710 -250 1948 641 -250
          1983 582 -250 2100 703 -300
          1874 584 -300 1855 568 -300
          1833 554 -300 1814 538 -300
          1865 471 -300 1844 485 -300
          1905 502 -300 1926 518 -300
          1946 533 -300 1968 551 -300
          1872 500 -300 2132 705 -300
          2190 824 -300 2242 760 -300
          1969 653 -300 2064 622 -300
          2036 656 -300 1993 569 -300
          2083 638 -300 2083 638 -300
          2169 706 -300 2237 768 -300
          2237 768 -300 2237 768 -300
          2194 744 -300 2119 773 -300
          2094 752 -300 2035 710 -300
          1948 641 -300 1983 582 -300
          2100 703 -350 1874 584 -350
          1855 568 -350 1833 554 -350
          1814 538 -350 1865 471 -350
          1844 485 -350 1905 502 -350
          1926 518 -350 1946 533 -350
          1968 551 -350 1872 500 -350
          2132 705 -350 2190 824 -350
          2242 760 -350 1969 653 -350
          2064 622 -350 2036 656 -350
          1993 569 -350 2083 638 -350
          2169 706 -350 2237 768 -350
          2237 768 -350 2237 768 -350
          2194 744 -350 2119 773 -350
          2119 773 -350 2094 752 -350
          2035 710 -350 1948 641 -350
          1983 582 -350 2100 703 -400
          1874 584 -400 1855 568 -400
          1833 554 -400 1814 538 -400
          1865 471 -400 1844 485 -400
          1905 502 -400 1926 518 -400
          1946 533 -400 1968 551 -400
          1872 500 -400 2132 705 -400
          2190 824 -400 2242 760 -400
          1969 653 -400 2064 622 -400
          2036 656 -400 1993 569 -400
          2083 638 -400 2169 706 -400
          2169 706 -400 2237 768 -400
          2237 768 -400 2237 768 -400
          2194 744 -400 2119 773 -400
          2094 752 -400 2035 710 -400
          1948 641 -400 1983 582 -400
          2100 703 -450 1874 584 -450
          1855 568 -450 1833 554 -450
          1814 538 -450 1865 471 -450
          1844 485 -450 1905 502 -450
          1926 518 -450 1946 533 -450
          1968 551 -450 1872 500 -450
          2132 705 -450 2190 824 -450
          2242 760 -450 1969 653 -450
          2064 622 -450 2036 656 -450
          1993 569 -450 2083 638 -450
          2169 706 -450 2237 768 -450
          2194 744 -450 2119 773 -450
          2094 752 -450 2035 710 -450
          1948 641 -450 1983 582 -450
          2100 703 -500 1874 584 -500
          1855 568 -500 1833 554 -500
          1814 538 -500 1865 471 -500
          1844 485 -500 1905 502 -500
          1926 518 -500 1946 533 -500
          1968 551 -500 1872 500 -500
          2132 705 -500 2190 824 -500
          2242 760 -500 1969 653 -500
          2064 622 -500 2036 656 -500
          1993 569 -500 2083 638 -500
          2169 706 -500 2237 768 -500
          2194 744 -500 2119 773 -500
          2094 752 -500 2035 710 -500
          1948 641 -500 1983 582 -500
          2046 623 -150 2012 674 -150
          2134 685 -150 2095 743 -150
          2046 623 -200 2012 674 -200
          2134 685 -200 2095 743 -200
          2046 623 -250 2012 674 -250
          2134 685 -250 2095 743 -250
          2046 623 -300 2012 674 -300
          2134 685 -300 2095 743 -300
          2046 623 -350 2012 674 -350
          2134 685 -350 2095 743 -350
          2046 623 -400 2012 674 -400
          2134 685 -400 2095 743 -400
          2046 623 -450 2012 674 -450
          2134 685 -450 2095 743 -450
          2046 623 -500 2012 674 -500
          2134 685 -500 2095 743 -500
          1836 1227 -150 1772 1265 -150
          1742 1119 -150 1704 1070 -150
          1632 980 -150 1573 888 -150
          1555 868 -150 1514 818 -150
          1596 762 -150 1615 789 -150
          1631 808 -150 1597 796 -150
          1707 917 -150 1752 968 -150
          1779 1014 -150 1815 1058 -150
          1846 1113 -150 1887 1164 -150
          1836 1227 -150 1872 1171 -150
          1691 924 -150 1775 1088 -150
          1807 1096 -150 1726 1022 -150
          1827 1225 -150 1893 1182 -150
          1573 888 -200 1555 868 -200
          1541 847 -200 1514 818 -200
          1596 762 -200 1615 789 -200
          1631 808 -200 1649 834 -200
          1666 856 -200 1685 883 -200
          1597 796 -200 1707 917 -200
          1779 1014 -200 1846 1113 -200
          1836 1227 -200 1836 1227 -200
          1872 1171 -200 1836 1227 -200
          1772 1265 -200 1813 1217 -200
          1742 1119 -200 1666 1028 -200
          1704 1070 -200 1601 931 -200
          1632 980 -200 1691 924 -200
          1775 1088 -200 1807 1096 -200
          1726 1022 -200 1827 1225 -200
          1893 1182 -200 1573 888 -250
          1555 868 -250 1541 847 -250
          1514 818 -250 1596 762 -250
          1615 789 -250 1631 808 -250
          1649 834 -250 1666 856 -250
          1685 883 -250 1597 796 -250
          1707 917 -250 1752 968 -250
          1779 1014 -250 1846 1113 -250
          1887 1164 -250 1836 1227 -250
          1872 1171 -250 1836 1227 -250
          1772 1265 -250 1742 1119 -250
          1666 1028 -250 1632 980 -250
          1691 924 -250 1775 1088 -250
          1807 1096 -250 1726 1022 -250
          1827 1225 -250 1893 1182 -250
          1573 888 -300 1555 868 -300
          1514 818 -300 1596 762 -300
          1615 789 -300 1631 808 -300
          1649 834 -300 1666 856 -300
          1685 883 -300 1597 796 -300
          1707 917 -300 1779 1014 -300
          1815 1058 -300 1846 1113 -300
          1836 1227 -300 1836 1227 -300
          1836 1227 -300 1872 1171 -300
          1836 1227 -300 1836 1227 -300
          1742 1119 -300 1666 1028 -300
          1704 1070 -300 1601 931 -300
          1691 924 -300 1775 1088 -300
          1807 1096 -300 1726 1022 -300
          1827 1225 -300 1893 1182 -300
          1573 888 -350 1555 868 -350
          1541 847 -350 1514 818 -350
          1596 762 -350 1615 789 -350
          1631 808 -350 1649 834 -350
          1666 856 -350 1685 883 -350
          1597 796 -350 1707 917 -350
          1779 1014 -350 1815 1058 -350
          1846 1113 -350 1836 1227 -350
          1772 1265 -350 1813 1217 -350
          1666 1028 -350 1601 931 -350
          1632 980 -350 1691 924 -350
          1775 1088 -350 1807 1096 -350
          1726 1022 -350 1827 1225 -350
          1893 1182 -350 1596 762 -400
          1615 789 -400 1631 808 -400
          1649 834 -400 1685 883 -400
          1597 796 -400 1707 917 -400
          1779 1014 -400 1815 1058 -400
          1887 1164 -400 1836 1227 -400
          1691 927 -400 1573 888 -400
          1514 818 -400 1836 1227 -400
          1836 1227 -400 1836 1227 -400
          1836 1227 -400 1813 1217 -400
          1772 1265 -400 1704 1070 -400
          1632 980 -400 1775 1088 -400
          1807 1096 -400 1726 1022 -400
          1827 1225 -400 1893 1182 -400
          1735 991 -150 1805 1087 -150
          1739 1117 -150 1681 1033 -150
          1735 991 -200 1805 1087 -200
          1739 1117 -200 1681 1033 -200
          1735 991 -250 1805 1087 -250
          1739 1117 -250 1681 1033 -250
          1735 991 -300 1805 1087 -300
          1739 1117 -300 1681 1033 -300
          1735 991 -350 1805 1087 -350
          1739 1117 -350 1681 1033 -350
          1735 991 -400 1805 1087 -400
          1739 1117 -400 1681 1033 -400
          1443 1047 -50 1489 1109 -50
          1537 1085 -50 1433 1135 -50
          1417 1091 -50 1499 1143 -50
          1254 1072 -50 1329 1119 -50
          1350 1251 -50 1364 1439 -50
          1304 1416 -50 1348 1495 -50
          1274 1301 -50 1248 1204 -50
          1219 1138 -50 1203 1118 -50
          1269 1113 -50 1285 1161 -50
          1294 1223 -50 1326 1333 -50
          1356 1386 -50 1306 1131 -50
          1333 1442 -50 1306 1359 -50
          1275 1253 -50 1248 1159 -50
          1234 1124 -50 1219 1085 -50
          1077 1130 -50 949 1142 -50
          1165 1221 -50 1057 1206 -50
          951 1235 -50 1043 1103 -50
          867 1226 -50 867 1334 -50
          867 1390 -50 868 1501 -50
          825 1582 -50 768 1504 -50
          771 1458 -50 770 1363 -50
          769 1287 -50 767 1227 -50
          812 1154 -50 834 1180 -50
          818 1220 -50 819 1304 -50
          817 1341 -50 816 1388 -50
          825 1437 -50 819 1491 -50
          856 1485 -50 853 1327 -50
          852 1209 -50 784 1487 -50
          781 1327 -50 781 1212 -50
          587 1102 -50 687 1239 -50
          588 1219 -50 478 1198 -50
          651 1150 -50 527 1131 -50
          377 1083 -50 418 1152 -50
          384 1293 -50 326 1304 -50
          316 1262 -50 333 1449 -50
          307 1402 -50 336 1363 -50
          358 1250 -50 365 1177 -50
          386 1128 -50 339 1407 -50
          374 1274 -50 426 1109 -50
          1375 1518 -100 1248 1204 -100
          1219 1138 -100 1329 1119 -100
          1274 1301 -100 1306 1356 -100
          1275 1253 -100 1248 1159 -100
          1234 1124 -100 1269 1113 -100
          1285 1161 -100 1294 1223 -100
          1326 1333 -100 1356 1386 -100
          856 1485 -100 853 1327 -100
          852 1209 -100 784 1487 -100
          781 1327 -100 781 1212 -100
          1210 1304 -100 1183 1270 -100
          1110 1321 -100 1019 1336 -100
          953 1307 -100 960 1347 -100
          868 1501 -100 872 1560 -100
          867 1390 -100 867 1454 -100
          916 1321 -100 816 1388 -100
          768 1504 -100 771 1458 -100
          834 1180 -100 818 1220 -100
          819 1304 -100 825 1437 -100
          819 1491 -100 828 1582 -100
          721 1352 -100 687 1311 -100
          623 1337 -100 558 1351 -100
          458 1278 -100 296 1247 -100
          326 1149 -100 418 1152 -100
          307 1402 -100 336 1363 -100
          358 1250 -100 365 1177 -100
          386 1128 -100 339 1407 -100
          374 1274 -100 408 1167 -100
          319 1238 -100 351 1142 -100
          1241 1037 -150 1213 1090 -150
          1207 1071 -150 1198 1047 -150
          1191 1023 -150 1183 998 -150
          1175 979 -150 1208 997 -150
          1252 986 -150 1259 956 -150
          1268 978 -150 1275 1000 -150
          1283 1024 -150 1290 1048 -150
          1298 1069 -150 1311 1090 -150
          1330 1139 -150 1339 1170 -150
          1344 1190 -150 1360 1234 -150
          1372 1264 -150 1377 1285 -150
          1391 1326 -150 1408 1372 -150
          1420 1408 -150 1426 1430 -150
          1374 1442 -150 1325 1459 -150
          1320 1440 -150 1308 1402 -150
          1294 1354 -150 1273 1297 -150
          1260 1250 -150 1247 1214 -150
          1233 1169 -150 1227 1153 -150
          1218 1123 -150 1316 1261 -150
          1361 1399 -150 1344 1403 -150
          1284 1232 -150 1281 1151 -150
          1261 1140 -150 1322 1399 -150
          1395 1379 -150 1242 1155 -150
          1313 1132 -150 1241 1037 -200
          1213 1090 -200 1207 1071 -200
          1198 1047 -200 1191 1023 -200
          1183 998 -200 1175 979 -200
          1208 997 -200 1252 986 -200
          1259 956 -200 1268 978 -200
          1275 1000 -200 1283 1024 -200
          1290 1048 -200 1298 1069 -200
          1330 1139 -200 1339 1170 -200
          1360 1234 -200 1372 1264 -200
          1391 1326 -200 1408 1372 -200
          1420 1408 -200 1426 1430 -200
          1374 1442 -200 1325 1459 -200
          1320 1440 -200 1294 1354 -200
          1273 1297 -200 1260 1250 -200
          1247 1214 -200 1233 1169 -200
          1227 1153 -200 1218 1123 -200
          1316 1261 -200 1361 1399 -200
          1344 1403 -200 1284 1232 -200
          1281 1151 -200 1261 1140 -200
          1322 1399 -200 1395 1379 -200
          1242 1155 -200 1313 1132 -200
          1241 1037 -250 1213 1090 -250
          1207 1071 -250 1198 1047 -250
          1191 1023 -250 1183 998 -250
          1175 979 -250 1208 997 -250
          1252 986 -250 1259 956 -250
          1268 978 -250 1275 1000 -250
          1283 1024 -250 1290 1048 -250
          1298 1069 -250 1311 1090 -250
          1330 1139 -250 1339 1170 -250
          1360 1234 -250 1372 1264 -250
          1391 1326 -250 1420 1408 -250
          1426 1430 -250 1374 1442 -250
          1325 1459 -250 1320 1440 -250
          1308 1402 -250 1294 1354 -250
          1260 1250 -250 1233 1169 -250
          1227 1153 -250 1218 1123 -250
          1316 1261 -250 1361 1399 -250
          1344 1403 -250 1284 1232 -250
          1281 1151 -250 1261 1140 -250
          1322 1399 -250 1395 1379 -250
          1242 1155 -250 1313 1132 -250
          1241 1037 -300 1213 1090 -300
          1207 1071 -300 1198 1047 -300
          1191 1023 -300 1183 998 -300
          1175 979 -300 1208 997 -300
          1252 986 -300 1259 956 -300
          1268 978 -300 1275 1000 -300
          1283 1024 -300 1290 1048 -300
          1298 1069 -300 1330 1139 -300
          1339 1170 -300 1360 1234 -300
          1372 1264 -300 1391 1326 -300
          1420 1408 -300 1426 1430 -300
          1374 1442 -300 1325 1459 -300
          1320 1440 -300 1308 1402 -300
          1294 1354 -300 1260 1250 -300
          1233 1169 -300 1227 1153 -300
          1316 1261 -300 1361 1399 -300
          1344 1403 -300 1284 1232 -300
          1281 1151 -300 1261 1140 -300
          1322 1399 -300 1395 1379 -300
          1242 1155 -300 1313 1132 -300
          1241 1037 -350 1213 1090 -350
          1207 1071 -350 1198 1047 -350
          1191 1023 -350 1183 998 -350
          1175 979 -350 1208 997 -350
          1252 986 -350 1259 956 -350
          1268 978 -350 1275 1000 -350
          1298 1069 -350 1330 1139 -350
          1339 1170 -350 1372 1264 -350
          1391 1326 -350 1408 1372 -350
          1420 1408 -350 1426 1430 -350
          1374 1442 -350 1325 1459 -350
          1320 1440 -350 1294 1354 -350
          1260 1250 -350 1233 1169 -350
          1227 1153 -350 1316 1261 -350
          1361 1399 -350 1344 1403 -350
          1284 1232 -350 1281 1151 -350
          1261 1140 -350 1322 1399 -350
          1395 1379 -350 1242 1155 -350
          1313 1132 -350 1241 1037 -400
          1213 1090 -400 1207 1071 -400
          1198 1047 -400 1191 1023 -400
          1183 998 -400 1175 979 -400
          1208 997 -400 1252 986 -400
          1259 956 -400 1268 978 -400
          1275 1000 -400 1283 1024 -400
          1290 1048 -400 1298 1069 -400
          1344 1190 -400 1360 1234 -400
          1339 1170 -400 1408 1372 -400
          1426 1430 -400 1372 1264 -400
          1374 1442 -400 1325 1459 -400
          1420 1408 -400 1273 1297 -400
          1233 1169 -400 1218 1123 -400
          1320 1440 -400 1316 1261 -400
          1330 1139 -400 1260 1250 -400
          1227 1153 -400 1361 1399 -400
          1344 1403 -400 1284 1232 -400
          1281 1151 -400 1261 1140 -400
          1322 1399 -400 1395 1379 -400
          1242 1155 -400 1313 1132 -400
          1241 1037 -450 1213 1090 -450
          1207 1071 -450 1198 1047 -450
          1191 1023 -450 1183 998 -450
          1175 979 -450 1208 997 -450
          1252 986 -450 1259 956 -450
          1268 978 -450 1275 1000 -450
          1283 1024 -450 1290 1048 -450
          1298 1069 -450 1330 1139 -450
          1339 1170 -450 1344 1190 -450
          1360 1234 -450 1372 1264 -450
          1420 1408 -450 1426 1430 -450
          1374 1442 -450 1325 1459 -450
          1320 1440 -450 1294 1354 -450